<?xml version="1.0" encoding="UTF-8"?>

<!-- generated on 2025-02-06 13:03:42 by Eclipse SUMO GUI Version 1.12.0
<configuration xmlns:xsi="http://www.w3.org/2001/XMLSchema-instance" xsi:noNamespaceSchemaLocation="http://sumo.dlr.de/xsd/sumoConfiguration.xsd">

    <input>
        <net-file value="highway.net.xml"/>
        <route-files value="highway.rou.xml"/>
        <additional-files value="highway.add.xml"/>
    </input>

    <output>
        <tripinfo-output value="tripinfo.xml"/>
    </output>

    <traci_server>
        <remote-port value="39987"/>
    </traci_server>

    <gui_only>
        <quit-on-end value="true"/>
        <start value="true"/>
    </gui_only>

</configuration>
-->

<tripinfos xmlns:xsi="http://www.w3.org/2001/XMLSchema-instance" xsi:noNamespaceSchemaLocation="http://sumo.dlr.de/xsd/tripinfo_file.xsd">
    <tripinfo id="carflow.0" depart="0.00" departLane="E0_0" departPos="3.10" departSpeed="0.00" departDelay="0.00" arrival="80.00" arrivalLane="E0_0" arrivalPos="300.00" arrivalSpeed="3.06" duration="80.00" routeLength="296.90" waitingTime="0.00" waitingCount="0" stopTime="0.00" timeLoss="20.48" rerouteNo="1" devices="tripinfo_carflow.0 routing_carflow.0" vType="car" speedFactor="1.06" vaporized=""/>
    <tripinfo id="carflow.1" depart="4.00" departLane="E0_0" departPos="3.10" departSpeed="0.00" departDelay="4.00" arrival="92.00" arrivalLane="E0_0" arrivalPos="300.00" arrivalSpeed="3.41" duration="88.00" routeLength="296.90" waitingTime="3.00" waitingCount="2" stopTime="1.00" timeLoss="27.00" rerouteNo="1" devices="tripinfo_carflow.1 routing_carflow.1" vType="car" speedFactor="0.94" vaporized=""/>
    <tripinfo id="carflow.3" depart="10.00" departLane="E0_0" departPos="3.10" departSpeed="0.00" departDelay="10.00" arrival="100.00" arrivalLane="E0_0" arrivalPos="300.00" arrivalSpeed="4.15" duration="90.00" routeLength="296.90" waitingTime="0.00" waitingCount="0" stopTime="1.00" timeLoss="29.54" rerouteNo="1" devices="tripinfo_carflow.3 routing_carflow.3" vType="car" speedFactor="1.08" vaporized=""/>
    <tripinfo id="carflow.6" depart="20.00" departLane="E0_0" departPos="3.10" departSpeed="0.00" departDelay="20.00" arrival="103.00" arrivalLane="E0_0" arrivalPos="300.00" arrivalSpeed="4.70" duration="83.00" routeLength="296.90" waitingTime="0.00" waitingCount="0" stopTime="0.00" timeLoss="23.25" rerouteNo="1" devices="tripinfo_carflow.6 routing_carflow.6" vType="car" speedFactor="1.05" vaporized=""/>
    <tripinfo id="carflow.7" depart="24.00" departLane="E0_0" departPos="3.10" departSpeed="0.00" departDelay="24.00" arrival="114.00" arrivalLane="E0_0" arrivalPos="300.00" arrivalSpeed="3.81" duration="90.00" routeLength="296.90" waitingTime="0.00" waitingCount="0" stopTime="1.00" timeLoss="29.17" rerouteNo="1" devices="tripinfo_carflow.7 routing_carflow.7" vType="car" speedFactor="0.89" vaporized=""/>
    <tripinfo id="carflow.9" depart="29.00" departLane="E0_0" departPos="3.10" departSpeed="0.00" departDelay="29.00" arrival="117.00" arrivalLane="E0_0" arrivalPos="300.00" arrivalSpeed="4.53" duration="88.00" routeLength="296.90" waitingTime="1.00" waitingCount="1" stopTime="0.00" timeLoss="28.62" rerouteNo="1" devices="tripinfo_carflow.9 routing_carflow.9" vType="car" speedFactor="0.86" vaporized=""/>
    <tripinfo id="carflow.11" depart="35.00" departLane="E0_0" departPos="3.10" departSpeed="0.00" departDelay="35.00" arrival="129.00" arrivalLane="E0_0" arrivalPos="300.00" arrivalSpeed="3.53" duration="94.00" routeLength="296.90" waitingTime="0.00" waitingCount="0" stopTime="1.00" timeLoss="33.22" rerouteNo="1" devices="tripinfo_carflow.11 routing_carflow.11" vType="car" speedFactor="1.03" vaporized=""/>
    <tripinfo id="carflow.5" depart="17.00" departLane="E0_0" departPos="3.10" departSpeed="0.00" departDelay="17.00" arrival="133.00" arrivalLane="E0_0" arrivalPos="300.00" arrivalSpeed="4.08" duration="116.00" routeLength="296.90" waitingTime="30.00" waitingCount="2" stopTime="1.00" timeLoss="55.27" rerouteNo="1" devices="tripinfo_carflow.5 routing_carflow.5" vType="car" speedFactor="0.83" vaporized=""/>
    <tripinfo id="carflow.2" depart="6.00" departLane="E0_0" departPos="3.10" departSpeed="0.00" departDelay="6.00" arrival="136.00" arrivalLane="E0_0" arrivalPos="300.00" arrivalSpeed="3.73" duration="130.00" routeLength="296.90" waitingTime="42.00" waitingCount="1" stopTime="1.00" timeLoss="69.23" rerouteNo="1" devices="tripinfo_carflow.2 routing_carflow.2" vType="car" speedFactor="1.01" vaporized=""/>
    <tripinfo id="carflow.13" depart="43.00" departLane="E0_0" departPos="3.10" departSpeed="0.00" departDelay="43.00" arrival="138.00" arrivalLane="E0_0" arrivalPos="300.00" arrivalSpeed="4.87" duration="95.00" routeLength="296.90" waitingTime="6.00" waitingCount="3" stopTime="0.00" timeLoss="35.62" rerouteNo="1" devices="tripinfo_carflow.13 routing_carflow.13" vType="car" speedFactor="1.12" vaporized=""/>
    <tripinfo id="carflow.4" depart="13.00" departLane="E0_0" departPos="3.10" departSpeed="0.00" departDelay="13.00" arrival="146.00" arrivalLane="E0_0" arrivalPos="300.00" arrivalSpeed="3.19" duration="133.00" routeLength="296.90" waitingTime="38.00" waitingCount="2" stopTime="1.00" timeLoss="72.20" rerouteNo="1" devices="tripinfo_carflow.4 routing_carflow.4" vType="car" speedFactor="1.03" vaporized=""/>
    <tripinfo id="carflow.15" depart="49.00" departLane="E0_0" departPos="3.10" departSpeed="0.00" departDelay="49.00" arrival="148.00" arrivalLane="E0_1" arrivalPos="300.00" arrivalSpeed="5.00" duration="99.00" routeLength="296.90" waitingTime="6.00" waitingCount="5" stopTime="0.00" timeLoss="39.52" rerouteNo="1" devices="tripinfo_carflow.15 routing_carflow.15" vType="car" speedFactor="0.93" vaporized=""/>
    <tripinfo id="carflow.14" depart="46.00" departLane="E0_0" departPos="3.10" departSpeed="0.00" departDelay="46.00" arrival="158.00" arrivalLane="E0_2" arrivalPos="300.00" arrivalSpeed="3.36" duration="112.00" routeLength="296.90" waitingTime="23.00" waitingCount="1" stopTime="0.00" timeLoss="52.30" rerouteNo="1" devices="tripinfo_carflow.14 routing_carflow.14" vType="car" speedFactor="0.99" vaporized=""/>
    <tripinfo id="carflow.8" depart="26.00" departLane="E0_0" departPos="3.10" departSpeed="0.00" departDelay="26.00" arrival="159.00" arrivalLane="E0_0" arrivalPos="300.00" arrivalSpeed="3.58" duration="133.00" routeLength="296.90" waitingTime="39.00" waitingCount="4" stopTime="1.00" timeLoss="72.32" rerouteNo="1" devices="tripinfo_carflow.8 routing_carflow.8" vType="car" speedFactor="0.94" vaporized=""/>
    <tripinfo id="carflow.21" depart="71.00" departLane="E0_0" departPos="3.10" departSpeed="0.00" departDelay="71.00" arrival="161.00" arrivalLane="E0_2" arrivalPos="300.00" arrivalSpeed="3.78" duration="90.00" routeLength="296.90" waitingTime="1.00" waitingCount="1" stopTime="0.00" timeLoss="30.39" rerouteNo="1" devices="tripinfo_carflow.21 routing_carflow.21" vType="car" speedFactor="1.01" vaporized=""/>
    <tripinfo id="carflow.10" depart="31.00" departLane="E0_0" departPos="3.10" departSpeed="0.00" departDelay="31.00" arrival="164.00" arrivalLane="E0_0" arrivalPos="300.00" arrivalSpeed="4.22" duration="133.00" routeLength="296.90" waitingTime="35.00" waitingCount="5" stopTime="1.00" timeLoss="71.84" rerouteNo="1" devices="tripinfo_carflow.10 routing_carflow.10" vType="car" speedFactor="1.09" vaporized=""/>
    <tripinfo id="carflow.17" depart="55.00" departLane="E0_0" departPos="3.10" departSpeed="0.00" departDelay="55.00" arrival="167.00" arrivalLane="E0_0" arrivalPos="300.00" arrivalSpeed="4.96" duration="112.00" routeLength="296.90" waitingTime="12.00" waitingCount="5" stopTime="0.00" timeLoss="51.98" rerouteNo="1" devices="tripinfo_carflow.17 routing_carflow.17" vType="car" speedFactor="0.94" vaporized=""/>
    <tripinfo id="carflow.12" depart="38.00" departLane="E0_0" departPos="3.10" departSpeed="0.00" departDelay="38.00" arrival="175.00" arrivalLane="E0_0" arrivalPos="300.00" arrivalSpeed="3.07" duration="137.00" routeLength="296.90" waitingTime="39.00" waitingCount="4" stopTime="1.00" timeLoss="76.54" rerouteNo="1" devices="tripinfo_carflow.12 routing_carflow.12" vType="car" speedFactor="1.05" vaporized=""/>
    <tripinfo id="carflow.18" depart="59.00" departLane="E0_0" departPos="3.10" departSpeed="0.00" departDelay="59.00" arrival="187.00" arrivalLane="E0_0" arrivalPos="300.00" arrivalSpeed="3.77" duration="128.00" routeLength="296.90" waitingTime="10.00" waitingCount="3" stopTime="1.00" timeLoss="67.43" rerouteNo="1" devices="tripinfo_carflow.18 routing_carflow.18" vType="car" speedFactor="0.94" vaporized=""/>
    <tripinfo id="carflow.24" depart="81.00" departLane="E0_0" departPos="3.10" departSpeed="0.00" departDelay="81.00" arrival="196.00" arrivalLane="E0_0" arrivalPos="300.00" arrivalSpeed="3.02" duration="115.00" routeLength="296.90" waitingTime="6.00" waitingCount="3" stopTime="1.00" timeLoss="54.04" rerouteNo="1" devices="tripinfo_carflow.24 routing_carflow.24" vType="car" speedFactor="0.83" vaporized=""/>
    <tripinfo id="carflow.22" depart="74.00" departLane="E0_0" departPos="3.10" departSpeed="0.00" departDelay="74.00" arrival="204.00" arrivalLane="E0_0" arrivalPos="300.00" arrivalSpeed="4.62" duration="130.00" routeLength="296.90" waitingTime="26.00" waitingCount="4" stopTime="1.00" timeLoss="68.74" rerouteNo="1" devices="tripinfo_carflow.22 routing_carflow.22" vType="car" speedFactor="0.98" vaporized=""/>
    <tripinfo id="carflow.16" depart="52.00" departLane="E0_0" departPos="3.10" departSpeed="0.00" departDelay="52.00" arrival="207.00" arrivalLane="E0_0" arrivalPos="300.00" arrivalSpeed="3.16" duration="155.00" routeLength="296.90" waitingTime="58.00" waitingCount="4" stopTime="1.00" timeLoss="94.25" rerouteNo="1" devices="tripinfo_carflow.16 routing_carflow.16" vType="car" speedFactor="0.88" vaporized=""/>
    <tripinfo id="carflow.23" depart="77.00" departLane="E0_0" departPos="3.10" departSpeed="0.00" departDelay="77.00" arrival="208.00" arrivalLane="E0_2" arrivalPos="300.00" arrivalSpeed="4.27" duration="131.00" routeLength="296.90" waitingTime="27.00" waitingCount="6" stopTime="0.00" timeLoss="71.39" rerouteNo="1" devices="tripinfo_carflow.23 routing_carflow.23" vType="car" speedFactor="0.89" vaporized=""/>
    <tripinfo id="carflow.19" depart="63.00" departLane="E0_0" departPos="3.10" departSpeed="0.00" departDelay="63.00" arrival="212.00" arrivalLane="E0_0" arrivalPos="300.00" arrivalSpeed="4.83" duration="149.00" routeLength="296.90" waitingTime="45.00" waitingCount="5" stopTime="1.00" timeLoss="88.47" rerouteNo="1" devices="tripinfo_carflow.19 routing_carflow.19" vType="car" speedFactor="1.16" vaporized=""/>
    <tripinfo id="carflow.20" depart="67.00" departLane="E0_0" departPos="3.10" departSpeed="0.00" departDelay="67.00" arrival="217.00" arrivalLane="E0_0" arrivalPos="300.00" arrivalSpeed="3.50" duration="150.00" routeLength="296.90" waitingTime="36.00" waitingCount="9" stopTime="1.00" timeLoss="88.96" rerouteNo="1" devices="tripinfo_carflow.20 routing_carflow.20" vType="car" speedFactor="1.02" vaporized=""/>
</tripinfos>
